 # Al32 O48
  
         640  atoms
           2  atom types
 
      0.000000000000      17.750683960000  xlo xhi
      0.000000000000      17.750683960000  ylo yhi
      0.000000000000      17.750683960000  zlo zhi
 
Masses
 
            1   26.98153860             # Al
            2   15.99900000             # O
 
Atoms # charge
 
         1    1   3.000000        6.656506485000       2.218835495000       2.218835495000
         2    1   3.000000        6.656506485000       4.101831067093       4.437670990000
         3    1   3.000000        0.000000000000       6.656506485000       0.335839922907
         4    1   3.000000        0.000000000000       2.218835495000       4.101831067093
         5    1   3.000000        0.335839922907       0.000000000000       6.656506485000
         6    1   3.000000        0.335839922907       4.437670990000       2.218835495000
         7    1   3.000000        2.218835495000       4.101831067093       0.000000000000
         8    1   3.000000        2.218835495000       6.656506485000       2.218835495000
         9    1   3.000000        2.218835495000       2.218835495000       2.218835495000
        10    1   3.000000        2.218835495000       2.218835495000       6.656506485000
        11    1   3.000000        2.218835495000       0.335839922907       4.437670990000
        12    1   3.000000        4.101831067093       0.000000000000       2.218835495000
        13    1   3.000000        4.101831067093       4.437670990000       6.656506485000
        14    1   3.000000        4.437670990000       2.218835495000       0.335839922907
        15    1   3.000000        4.437670990000       6.656506485000       4.101831067093
        16    1   3.000000        6.656506485000       0.335839922907       0.000000000000
        17    1   3.000000        2.218835495000       6.656506485000       6.656506485000
        18    1   3.000000        2.218835495000       8.539502057093       0.000000000000
        19    1   3.000000        4.437670990000       2.218835495000       4.773510912907
        20    1   3.000000        4.437670990000       6.656506485000       8.539502057093
        21    1   3.000000        4.773510912907       4.437670990000       2.218835495000
        22    1   3.000000        4.773510912907       0.000000000000       6.656506485000
        23    1   3.000000        6.656506485000       8.539502057093       4.437670990000
        24    1   3.000000        6.656506485000       2.218835495000       6.656506485000
        25    1   3.000000        6.656506485000       6.656506485000       6.656506485000
        26    1   3.000000        6.656506485000       6.656506485000       2.218835495000
        27    1   3.000000        6.656506485000       4.773510912907       0.000000000000
        28    1   3.000000        8.539502057093       4.437670990000       6.656506485000
        29    1   3.000000        8.539502057093       0.000000000000       2.218835495000
        30    1   3.000000        0.000000000000       6.656506485000       4.773510912907
        31    1   3.000000        0.000000000000       2.218835495000       8.539502057093
        32    1   3.000000        2.218835495000       4.773510912907       4.437670990000
        33    2  -2.000000        7.864991953475       5.422446629856       1.417487080365
        34    2  -2.000000        7.864991953475       3.452895350144       3.020183909635
        35    2  -2.000000        7.890566340144       1.417487080365       1.010350026525
        36    2  -2.000000        7.890566340144       3.020183909635       5.448021016525
        37    2  -2.000000        0.984775639856       3.020183909635       1.010350026525
        38    2  -2.000000        0.984775639856       1.417487080365       5.448021016525
        39    2  -2.000000        1.010350026525       7.890566340144       1.417487080365
        40    2  -2.000000        1.010350026525       0.984775639856       3.020183909635
        41    2  -2.000000        1.417487080365       5.448021016525       0.984775639856
        42    2  -2.000000        1.417487080365       3.427320963475       3.452895350144
        43    2  -2.000000        1.417487080365       1.010350026525       7.890566340144
        44    2  -2.000000        1.417487080365       7.864991953475       5.422446629856
        45    2  -2.000000        3.020183909635       3.427320963475       5.422446629856
        46    2  -2.000000        3.020183909635       1.010350026525       0.984775639856
        47    2  -2.000000        3.020183909635       7.864991953475       3.452895350144
        48    2  -2.000000        3.020183909635       5.448021016525       7.890566340144
        49    2  -2.000000        3.427320963475       3.452895350144       1.417487080365
        50    2  -2.000000        3.427320963475       5.422446629856       3.020183909635
        51    2  -2.000000        3.452895350144       1.417487080365       3.427320963475
        52    2  -2.000000        3.452895350144       3.020183909635       7.864991953475
        53    2  -2.000000        5.422446629856       1.417487080365       7.864991953475
        54    2  -2.000000        5.422446629856       3.020183909635       3.427320963475
        55    2  -2.000000        5.448021016525       7.890566340144       3.020183909635
        56    2  -2.000000        5.448021016525       0.984775639856       1.417487080365
        57    2  -2.000000        3.427320963475       0.984775639856       5.855158070365
        58    2  -2.000000        3.427320963475       7.890566340144       7.457854899635
        59    2  -2.000000        3.452895350144       5.855158070365       5.448021016525
        60    2  -2.000000        3.452895350144       7.457854899635       1.010350026525
        61    2  -2.000000        5.422446629856       7.457854899635       5.448021016525
        62    2  -2.000000        5.422446629856       5.855158070365       1.010350026525
        63    2  -2.000000        5.448021016525       3.452895350144       5.855158070365
        64    2  -2.000000        5.448021016525       5.422446629856       7.457854899635
        65    2  -2.000000        5.855158070365       1.010350026525       5.422446629856
        66    2  -2.000000        5.855158070365       7.864991953475       7.890566340144
        67    2  -2.000000        5.855158070365       5.448021016525       3.452895350144
        68    2  -2.000000        5.855158070365       3.427320963475       0.984775639856
        69    2  -2.000000        7.457854899635       7.864991953475       0.984775639856
        70    2  -2.000000        7.457854899635       5.448021016525       5.422446629856
        71    2  -2.000000        7.457854899635       3.427320963475       7.890566340144
        72    2  -2.000000        7.457854899635       1.010350026525       3.452895350144
        73    2  -2.000000        7.864991953475       7.890566340144       5.855158070365
        74    2  -2.000000        7.864991953475       0.984775639856       7.457854899635
        75    2  -2.000000        7.890566340144       5.855158070365       7.864991953475
        76    2  -2.000000        7.890566340144       7.457854899635       3.427320963475
        77    2  -2.000000        0.984775639856       5.855158070365       3.427320963475
        78    2  -2.000000        0.984775639856       7.457854899635       7.864991953475
        79    2  -2.000000        1.010350026525       3.452895350144       7.457854899635
        80    2  -2.000000        1.010350026525       5.422446629856       5.855158070365
        81    1   3.000000       15.531848465000       2.218835495000       2.218835495000
        82    1   3.000000       15.531848465000       4.101831067093       4.437670990000
        83    1   3.000000        8.875341980000       6.656506485000       0.335839922907
        84    1   3.000000        8.875341980000       2.218835495000       4.101831067093
        85    1   3.000000        9.211181902907       0.000000000000       6.656506485000
        86    1   3.000000        9.211181902907       4.437670990000       2.218835495000
        87    1   3.000000       11.094177475000       4.101831067093       0.000000000000
        88    1   3.000000       11.094177475000       6.656506485000       2.218835495000
        89    1   3.000000       11.094177475000       2.218835495000       2.218835495000
        90    1   3.000000       11.094177475000       2.218835495000       6.656506485000
        91    1   3.000000       11.094177475000       0.335839922907       4.437670990000
        92    1   3.000000       12.977173047093       0.000000000000       2.218835495000
        93    1   3.000000       12.977173047093       4.437670990000       6.656506485000
        94    1   3.000000       13.313012970000       2.218835495000       0.335839922907
        95    1   3.000000       13.313012970000       6.656506485000       4.101831067093
        96    1   3.000000       15.531848465000       0.335839922907       0.000000000000
        97    1   3.000000       11.094177475000       6.656506485000       6.656506485000
        98    1   3.000000       11.094177475000       8.539502057093       0.000000000000
        99    1   3.000000       13.313012970000       2.218835495000       4.773510912907
       100    1   3.000000       13.313012970000       6.656506485000       8.539502057093
       101    1   3.000000       13.648852892907       4.437670990000       2.218835495000
       102    1   3.000000       13.648852892907       0.000000000000       6.656506485000
       103    1   3.000000       15.531848465000       8.539502057093       4.437670990000
       104    1   3.000000       15.531848465000       2.218835495000       6.656506485000
       105    1   3.000000       15.531848465000       6.656506485000       6.656506485000
       106    1   3.000000       15.531848465000       6.656506485000       2.218835495000
       107    1   3.000000       15.531848465000       4.773510912907       0.000000000000
       108    1   3.000000       17.414844037093       4.437670990000       6.656506485000
       109    1   3.000000       17.414844037093       0.000000000000       2.218835495000
       110    1   3.000000        8.875341980000       6.656506485000       4.773510912907
       111    1   3.000000        8.875341980000       2.218835495000       8.539502057093
       112    1   3.000000       11.094177475000       4.773510912907       4.437670990000
       113    2  -2.000000       16.740333933475       5.422446629856       1.417487080365
       114    2  -2.000000       16.740333933475       3.452895350144       3.020183909635
       115    2  -2.000000       16.765908320144       1.417487080365       1.010350026525
       116    2  -2.000000       16.765908320144       3.020183909635       5.448021016525
       117    2  -2.000000        9.860117619856       3.020183909635       1.010350026525
       118    2  -2.000000        9.860117619856       1.417487080365       5.448021016525
       119    2  -2.000000        9.885692006525       7.890566340144       1.417487080365
       120    2  -2.000000        9.885692006525       0.984775639856       3.020183909635
       121    2  -2.000000       10.292829060365       5.448021016525       0.984775639856
       122    2  -2.000000       10.292829060365       3.427320963475       3.452895350144
       123    2  -2.000000       10.292829060365       1.010350026525       7.890566340144
       124    2  -2.000000       10.292829060365       7.864991953475       5.422446629856
       125    2  -2.000000       11.895525889635       3.427320963475       5.422446629856
       126    2  -2.000000       11.895525889635       1.010350026525       0.984775639856
       127    2  -2.000000       11.895525889635       7.864991953475       3.452895350144
       128    2  -2.000000       11.895525889635       5.448021016525       7.890566340144
       129    2  -2.000000       12.302662943475       3.452895350144       1.417487080365
       130    2  -2.000000       12.302662943475       5.422446629856       3.020183909635
       131    2  -2.000000       12.328237330144       1.417487080365       3.427320963475
       132    2  -2.000000       12.328237330144       3.020183909635       7.864991953475
       133    2  -2.000000       14.297788609856       1.417487080365       7.864991953475
       134    2  -2.000000       14.297788609856       3.020183909635       3.427320963475
       135    2  -2.000000       14.323362996525       7.890566340144       3.020183909635
       136    2  -2.000000       14.323362996525       0.984775639856       1.417487080365
       137    2  -2.000000       12.302662943475       0.984775639856       5.855158070365
       138    2  -2.000000       12.302662943475       7.890566340144       7.457854899635
       139    2  -2.000000       12.328237330144       5.855158070365       5.448021016525
       140    2  -2.000000       12.328237330144       7.457854899635       1.010350026525
       141    2  -2.000000       14.297788609856       7.457854899635       5.448021016525
       142    2  -2.000000       14.297788609856       5.855158070365       1.010350026525
       143    2  -2.000000       14.323362996525       3.452895350144       5.855158070365
       144    2  -2.000000       14.323362996525       5.422446629856       7.457854899635
       145    2  -2.000000       14.730500050365       1.010350026525       5.422446629856
       146    2  -2.000000       14.730500050365       7.864991953475       7.890566340144
       147    2  -2.000000       14.730500050365       5.448021016525       3.452895350144
       148    2  -2.000000       14.730500050365       3.427320963475       0.984775639856
       149    2  -2.000000       16.333196879635       7.864991953475       0.984775639856
       150    2  -2.000000       16.333196879635       5.448021016525       5.422446629856
       151    2  -2.000000       16.333196879635       3.427320963475       7.890566340144
       152    2  -2.000000       16.333196879635       1.010350026525       3.452895350144
       153    2  -2.000000       16.740333933475       7.890566340144       5.855158070365
       154    2  -2.000000       16.740333933475       0.984775639856       7.457854899635
       155    2  -2.000000       16.765908320144       5.855158070365       7.864991953475
       156    2  -2.000000       16.765908320144       7.457854899635       3.427320963475
       157    2  -2.000000        9.860117619856       5.855158070365       3.427320963475
       158    2  -2.000000        9.860117619856       7.457854899635       7.864991953475
       159    2  -2.000000        9.885692006525       3.452895350144       7.457854899635
       160    2  -2.000000        9.885692006525       5.422446629856       5.855158070365
       161    1   3.000000        6.656506485000      11.094177475000       2.218835495000
       162    1   3.000000        6.656506485000      12.977173047093       4.437670990000
       163    1   3.000000        0.000000000000      15.531848465000       0.335839922907
       164    1   3.000000        0.000000000000      11.094177475000       4.101831067093
       165    1   3.000000        0.335839922907       8.875341980000       6.656506485000
       166    1   3.000000        0.335839922907      13.313012970000       2.218835495000
       167    1   3.000000        2.218835495000      12.977173047093       0.000000000000
       168    1   3.000000        2.218835495000      15.531848465000       2.218835495000
       169    1   3.000000        2.218835495000      11.094177475000       2.218835495000
       170    1   3.000000        2.218835495000      11.094177475000       6.656506485000
       171    1   3.000000        2.218835495000       9.211181902907       4.437670990000
       172    1   3.000000        4.101831067093       8.875341980000       2.218835495000
       173    1   3.000000        4.101831067093      13.313012970000       6.656506485000
       174    1   3.000000        4.437670990000      11.094177475000       0.335839922907
       175    1   3.000000        4.437670990000      15.531848465000       4.101831067093
       176    1   3.000000        6.656506485000       9.211181902907       0.000000000000
       177    1   3.000000        2.218835495000      15.531848465000       6.656506485000
       178    1   3.000000        2.218835495000      17.414844037093       0.000000000000
       179    1   3.000000        4.437670990000      11.094177475000       4.773510912907
       180    1   3.000000        4.437670990000      15.531848465000       8.539502057093
       181    1   3.000000        4.773510912907      13.313012970000       2.218835495000
       182    1   3.000000        4.773510912907       8.875341980000       6.656506485000
       183    1   3.000000        6.656506485000      17.414844037093       4.437670990000
       184    1   3.000000        6.656506485000      11.094177475000       6.656506485000
       185    1   3.000000        6.656506485000      15.531848465000       6.656506485000
       186    1   3.000000        6.656506485000      15.531848465000       2.218835495000
       187    1   3.000000        6.656506485000      13.648852892907       0.000000000000
       188    1   3.000000        8.539502057093      13.313012970000       6.656506485000
       189    1   3.000000        8.539502057093       8.875341980000       2.218835495000
       190    1   3.000000        0.000000000000      15.531848465000       4.773510912907
       191    1   3.000000        0.000000000000      11.094177475000       8.539502057093
       192    1   3.000000        2.218835495000      13.648852892907       4.437670990000
       193    2  -2.000000        7.864991953475      14.297788609856       1.417487080365
       194    2  -2.000000        7.864991953475      12.328237330144       3.020183909635
       195    2  -2.000000        7.890566340144      10.292829060365       1.010350026525
       196    2  -2.000000        7.890566340144      11.895525889635       5.448021016525
       197    2  -2.000000        0.984775639856      11.895525889635       1.010350026525
       198    2  -2.000000        0.984775639856      10.292829060365       5.448021016525
       199    2  -2.000000        1.010350026525      16.765908320144       1.417487080365
       200    2  -2.000000        1.010350026525       9.860117619856       3.020183909635
       201    2  -2.000000        1.417487080365      14.323362996525       0.984775639856
       202    2  -2.000000        1.417487080365      12.302662943475       3.452895350144
       203    2  -2.000000        1.417487080365       9.885692006525       7.890566340144
       204    2  -2.000000        1.417487080365      16.740333933475       5.422446629856
       205    2  -2.000000        3.020183909635      12.302662943475       5.422446629856
       206    2  -2.000000        3.020183909635       9.885692006525       0.984775639856
       207    2  -2.000000        3.020183909635      16.740333933475       3.452895350144
       208    2  -2.000000        3.020183909635      14.323362996525       7.890566340144
       209    2  -2.000000        3.427320963475      12.328237330144       1.417487080365
       210    2  -2.000000        3.427320963475      14.297788609856       3.020183909635
       211    2  -2.000000        3.452895350144      10.292829060365       3.427320963475
       212    2  -2.000000        3.452895350144      11.895525889635       7.864991953475
       213    2  -2.000000        5.422446629856      10.292829060365       7.864991953475
       214    2  -2.000000        5.422446629856      11.895525889635       3.427320963475
       215    2  -2.000000        5.448021016525      16.765908320144       3.020183909635
       216    2  -2.000000        5.448021016525       9.860117619856       1.417487080365
       217    2  -2.000000        3.427320963475       9.860117619856       5.855158070365
       218    2  -2.000000        3.427320963475      16.765908320144       7.457854899635
       219    2  -2.000000        3.452895350144      14.730500050365       5.448021016525
       220    2  -2.000000        3.452895350144      16.333196879635       1.010350026525
       221    2  -2.000000        5.422446629856      16.333196879635       5.448021016525
       222    2  -2.000000        5.422446629856      14.730500050365       1.010350026525
       223    2  -2.000000        5.448021016525      12.328237330144       5.855158070365
       224    2  -2.000000        5.448021016525      14.297788609856       7.457854899635
       225    2  -2.000000        5.855158070365       9.885692006525       5.422446629856
       226    2  -2.000000        5.855158070365      16.740333933475       7.890566340144
       227    2  -2.000000        5.855158070365      14.323362996525       3.452895350144
       228    2  -2.000000        5.855158070365      12.302662943475       0.984775639856
       229    2  -2.000000        7.457854899635      16.740333933475       0.984775639856
       230    2  -2.000000        7.457854899635      14.323362996525       5.422446629856
       231    2  -2.000000        7.457854899635      12.302662943475       7.890566340144
       232    2  -2.000000        7.457854899635       9.885692006525       3.452895350144
       233    2  -2.000000        7.864991953475      16.765908320144       5.855158070365
       234    2  -2.000000        7.864991953475       9.860117619856       7.457854899635
       235    2  -2.000000        7.890566340144      14.730500050365       7.864991953475
       236    2  -2.000000        7.890566340144      16.333196879635       3.427320963475
       237    2  -2.000000        0.984775639856      14.730500050365       3.427320963475
       238    2  -2.000000        0.984775639856      16.333196879635       7.864991953475
       239    2  -2.000000        1.010350026525      12.328237330144       7.457854899635
       240    2  -2.000000        1.010350026525      14.297788609856       5.855158070365
       241    1   3.000000       15.531848465000      11.094177475000       2.218835495000
       242    1   3.000000       15.531848465000      12.977173047093       4.437670990000
       243    1   3.000000        8.875341980000      15.531848465000       0.335839922907
       244    1   3.000000        8.875341980000      11.094177475000       4.101831067093
       245    1   3.000000        9.211181902907       8.875341980000       6.656506485000
       246    1   3.000000        9.211181902907      13.313012970000       2.218835495000
       247    1   3.000000       11.094177475000      12.977173047093       0.000000000000
       248    1   3.000000       11.094177475000      15.531848465000       2.218835495000
       249    1   3.000000       11.094177475000      11.094177475000       2.218835495000
       250    1   3.000000       11.094177475000      11.094177475000       6.656506485000
       251    1   3.000000       11.094177475000       9.211181902907       4.437670990000
       252    1   3.000000       12.977173047093       8.875341980000       2.218835495000
       253    1   3.000000       12.977173047093      13.313012970000       6.656506485000
       254    1   3.000000       13.313012970000      11.094177475000       0.335839922907
       255    1   3.000000       13.313012970000      15.531848465000       4.101831067093
       256    1   3.000000       15.531848465000       9.211181902907       0.000000000000
       257    1   3.000000       11.094177475000      15.531848465000       6.656506485000
       258    1   3.000000       11.094177475000      17.414844037093       0.000000000000
       259    1   3.000000       13.313012970000      11.094177475000       4.773510912907
       260    1   3.000000       13.313012970000      15.531848465000       8.539502057093
       261    1   3.000000       13.648852892907      13.313012970000       2.218835495000
       262    1   3.000000       13.648852892907       8.875341980000       6.656506485000
       263    1   3.000000       15.531848465000      17.414844037093       4.437670990000
       264    1   3.000000       15.531848465000      11.094177475000       6.656506485000
       265    1   3.000000       15.531848465000      15.531848465000       6.656506485000
       266    1   3.000000       15.531848465000      15.531848465000       2.218835495000
       267    1   3.000000       15.531848465000      13.648852892907       0.000000000000
       268    1   3.000000       17.414844037093      13.313012970000       6.656506485000
       269    1   3.000000       17.414844037093       8.875341980000       2.218835495000
       270    1   3.000000        8.875341980000      15.531848465000       4.773510912907
       271    1   3.000000        8.875341980000      11.094177475000       8.539502057093
       272    1   3.000000       11.094177475000      13.648852892907       4.437670990000
       273    2  -2.000000       16.740333933475      14.297788609856       1.417487080365
       274    2  -2.000000       16.740333933475      12.328237330144       3.020183909635
       275    2  -2.000000       16.765908320144      10.292829060365       1.010350026525
       276    2  -2.000000       16.765908320144      11.895525889635       5.448021016525
       277    2  -2.000000        9.860117619856      11.895525889635       1.010350026525
       278    2  -2.000000        9.860117619856      10.292829060365       5.448021016525
       279    2  -2.000000        9.885692006525      16.765908320144       1.417487080365
       280    2  -2.000000        9.885692006525       9.860117619856       3.020183909635
       281    2  -2.000000       10.292829060365      14.323362996525       0.984775639856
       282    2  -2.000000       10.292829060365      12.302662943475       3.452895350144
       283    2  -2.000000       10.292829060365       9.885692006525       7.890566340144
       284    2  -2.000000       10.292829060365      16.740333933475       5.422446629856
       285    2  -2.000000       11.895525889635      12.302662943475       5.422446629856
       286    2  -2.000000       11.895525889635       9.885692006525       0.984775639856
       287    2  -2.000000       11.895525889635      16.740333933475       3.452895350144
       288    2  -2.000000       11.895525889635      14.323362996525       7.890566340144
       289    2  -2.000000       12.302662943475      12.328237330144       1.417487080365
       290    2  -2.000000       12.302662943475      14.297788609856       3.020183909635
       291    2  -2.000000       12.328237330144      10.292829060365       3.427320963475
       292    2  -2.000000       12.328237330144      11.895525889635       7.864991953475
       293    2  -2.000000       14.297788609856      10.292829060365       7.864991953475
       294    2  -2.000000       14.297788609856      11.895525889635       3.427320963475
       295    2  -2.000000       14.323362996525      16.765908320144       3.020183909635
       296    2  -2.000000       14.323362996525       9.860117619856       1.417487080365
       297    2  -2.000000       12.302662943475       9.860117619856       5.855158070365
       298    2  -2.000000       12.302662943475      16.765908320144       7.457854899635
       299    2  -2.000000       12.328237330144      14.730500050365       5.448021016525
       300    2  -2.000000       12.328237330144      16.333196879635       1.010350026525
       301    2  -2.000000       14.297788609856      16.333196879635       5.448021016525
       302    2  -2.000000       14.297788609856      14.730500050365       1.010350026525
       303    2  -2.000000       14.323362996525      12.328237330144       5.855158070365
       304    2  -2.000000       14.323362996525      14.297788609856       7.457854899635
       305    2  -2.000000       14.730500050365       9.885692006525       5.422446629856
       306    2  -2.000000       14.730500050365      16.740333933475       7.890566340144
       307    2  -2.000000       14.730500050365      14.323362996525       3.452895350144
       308    2  -2.000000       14.730500050365      12.302662943475       0.984775639856
       309    2  -2.000000       16.333196879635      16.740333933475       0.984775639856
       310    2  -2.000000       16.333196879635      14.323362996525       5.422446629856
       311    2  -2.000000       16.333196879635      12.302662943475       7.890566340144
       312    2  -2.000000       16.333196879635       9.885692006525       3.452895350144
       313    2  -2.000000       16.740333933475      16.765908320144       5.855158070365
       314    2  -2.000000       16.740333933475       9.860117619856       7.457854899635
       315    2  -2.000000       16.765908320144      14.730500050365       7.864991953475
       316    2  -2.000000       16.765908320144      16.333196879635       3.427320963475
       317    2  -2.000000        9.860117619856      14.730500050365       3.427320963475
       318    2  -2.000000        9.860117619856      16.333196879635       7.864991953475
       319    2  -2.000000        9.885692006525      12.328237330144       7.457854899635
       320    2  -2.000000        9.885692006525      14.297788609856       5.855158070365
       321    1   3.000000        6.656506485000       2.218835495000      11.094177475000
       322    1   3.000000        6.656506485000       4.101831067093      13.313012970000
       323    1   3.000000        0.000000000000       6.656506485000       9.211181902907
       324    1   3.000000        0.000000000000       2.218835495000      12.977173047093
       325    1   3.000000        0.335839922907       0.000000000000      15.531848465000
       326    1   3.000000        0.335839922907       4.437670990000      11.094177475000