LAMMPS data file via write_data, version 22 Jul 2025, timestep = 5000, units = real

500 atoms
5 atom types

0 20 xlo xhi
0 20 ylo yhi
0 20 zlo zhi

Masses

1 40.078
2 28.085
3 24.305
4 26.982
5 15.999

Pair Coeffs # born/coul/long

1 0.092046 0.08 2.344 484.046 0
2 0.052926 0.046 1.4408 580.975 0
3 0.092046 0.08 1.788 201.72 0
4 0.078239 0.068 1.5704 324.062 0
5 0.317586 0.276 3.643 1962.27 0

Atoms # charge

44 1 0.945 2.9141882465632185 3.1901897151016843 5.851762324202453 0 0 0
83 1 0.945 3.117444674062808 0.162034085656452 5.233969565032991 0 0 0
112 2 1.89 6.187009334647367 4.66375590108436 5.5206512530592 0 0 0
126 2 1.89 3.5965414013103816 5.774892570637053 3.9511537255622993 0 0 0
147 3 0.945 3.2388548943389432 5.042722205665938 0.675438487769932 0 0 0
191 4 1.4175 2.158415979622296 3.074849504343907 2.799292350984714 0 0 0
203 4 1.4175 4.344504031416432 1.8756135447780993 2.206369664356473 0 0 0
214 5 -0.945 3.36475001767973 3.151828819452791 1.370082924840426 0 0 0
215 5 -0.945 4.406350408014471 5.885887128310304 2.3923798259522244 0 0 0
335 5 -0.945 2.4312444023912767 4.611479688592641 3.6410221958988958 0 0 0
368 5 -0.945 4.581571599000912 5.023148061246017 5.15607853781672 0 0 0
447 5 -0.945 3.2562534522936386 1.9339224540104627 3.65369237870231 0 0 0
449 5 -0.945 0.4994072796488891 2.99092441665774 2.2422079751824877 0 0 0
456 5 -0.945 1.1324263847256963 1.5926728708041058 5.756024065377159 0 0 0
12 1 0.945 6.5578164426326895 0.3951029857097499 3.0691982222203835 0 0 0
321 5 -0.945 5.947563924048799 2.558184495475295 2.436059917509205 0 0 0
408 5 -0.945 6.751830309424087 5.744137515925201 6.739921208155116 0 0 0
439 5 -0.945 4.698702104714135 0.363333633247943 1.264619612539687 0 0 0
362 5 -0.945 6.456556828837691 3.1844735129623767 6.239575488152592 0 0 0
115 2 1.89 5.503869917282757 6.261304862422747 1.1322561503811734 0 0 0
285 5 -0.945 7.247607481057767 4.866958171891337 4.282469686766092 0 0 0
13 1 0.945 10.602301086385953 3.3736450634618627 3.9248320765150697 0 0 0
14 1 0.945 8.957047737284011 6.023335184758746 5.681311791573507 0 0 0
72 1 0.945 8.015394037415827 3.9290126568961803 2.2416332638333794 0 0 0
140 2 1.89 12.933850051760531 0.9072847425240484 4.123233978831864 0 0 0
226 5 -0.945 9.52673441719823 5.869252323243687 2.8529834255206663 0 0 0
317 5 -0.945 10.170899137301772 2.6130758916116275 1.6084823210126977 0 0 0
480 5 -0.945 7.722608537979856 1.1705120931500643 5.0339742799083975 0 0 0
487 5 -0.945 12.29954825969574 4.511027518112717 2.8349678200343846 0 0 0
462 5 -0.945 11.280409844336173 1.143347360099278 4.353971463337248 0 1 0
364 5 -0.945 12.598000604073933 4.725866596777091 6.090481311747355 0 0 0
386 5 -0.945 6.967257376416973 6.434074693838796 1.9641127458768664 0 0 0
28 1 0.945 11.531977701661102 6.372678335278854 1.612623626029676 0 0 0
88 1 0.945 11.615043795526885 0.4145884702680634 0.9406659026970584 0 1 0
104 2 1.89 7.913799710124782 2.3097596386963923 6.256001277098074 0 0 0
473 5 -0.945 9.142260799878787 3.509896408090798 5.983925205689788 0 0 0
309 5 -0.945 13.358444121932814 0.6023592077167185 2.5413446358200487 0 0 0
376 5 -0.945 13.49652635303895 2.3970755687589422 4.767282428102891 0 0 0
43 1 0.945 19.369564878333144 2.401131332764028 4.3545346495402955 -1 0 0
96 2 1.89 13.874017532660893 4.875995193904021 2.6978020303057946 0 0 0
108 2 1.89 13.931067319835611 3.840583276879272 5.531408429964993 0 0 0
167 4 1.4175 17.70680278315747 0.5011043797976665 2.52556097334747 0 0 0
208 4 1.4175 18.880442865878404 3.635420211875508 1.9653394851211976 0 0 0
230 5 -0.945 14.12326753270255 6.480536848176388 2.2134192836681055 0 0 0
269 5 -0.945 14.466073864104505 3.9266699764600164 1.487188716245178 0 0 0
283 5 -0.945 18.631597085582435 5.045202187942348 3.1635980294205885 0 0 0
355 5 -0.945 14.547846644396836 4.864228363097513 4.236067050596075 0 0 0
432 5 -0.945 19.18649589685491 0.05718865390465666 3.6005214775701537 0 0 0
239 5 -0.945 17.828572227852813 2.229862946685634 2.3853471431964475 0 0 1
295 5 -0.945 18.494680923297295 4.042059765144819 0.17682522829193517 0 0 1
397 5 -0.945 15.014820617240103 3.3697856406995212 6.64895795668004 0 0 0
436 5 -0.945 19.07156458124614 7.066866392301036 6.599828948612181 0 0 0
381 5 -0.945 16.490003993321086 6.721583347846445 6.081313704010975 0 0 0
91 2 1.89 5.303565009886431 9.238558635119404 1.6873189765139556 0 0 0
121 2 1.89 3.8849156376721807 8.86646265487672 4.54990553216934 0 0 0
157 3 0.945 4.045661215796033 11.505798936036554 2.870985502399703 0 0 0
186 4 1.4175 2.5895256047590656 11.97087009814546 5.060753391247388 0 0 0
241 5 -0.945 3.205962795962872 7.340089518706558 4.356348897440364 0 0 0
251 5 -0.945 3.0795463345825476 10.304638662649674 4.238590606501884 0 0 0
325 5 -0.945 5.929277980010012 11.693538881145004 3.543658014117138 0 0 0
396 5 -0.945 4.554104678453721 8.988575298390879 6.1068904718862 0 0 0
409 5 -0.945 5.059729947596752 8.843325204034329 3.2906343603820782 0 0 0
490 5 -0.945 4.036418262839774 10.264815948985722 1.2862239424217656 0 0 0
41 1 0.945 2.5138065428997565 12.236961050354243 0.8906242829448306 0 0 0
444 5 -0.945 0.8754941763089241 12.273265264342209 5.153941752829877 1 0 0
301 5 -0.945 5.111545251045214 7.827796343468183 0.6952419209042767 0 0 1
184 4 1.4175 19.94638063907148 11.083651264583581 6.162133234446628 -1 0 0
303 5 -0.945 3.2794959847327783 13.109065676325345 3.6979752049167205 0 0 0
122 2 1.89 8.383984650395265 7.069129292791111 2.6638823524246416 0 0 0
16 1 0.945 12.326480898608503 7.104537802916528 6.539075806654553 0 0 0
223 5 -0.945 8.334733989182794 7.837511884448088 4.173517009316855 0 0 0
50 1 0.945 10.14783425206674 12.397161137948729 5.019742259705775 0 0 0
53 1 0.945 7.9937550893699285 11.805191905860534 2.04891595042092 0 0 0
78 1 0.945 10.272060143236352 9.50007259529393 3.3660677492497326 0 0 0
192 4 1.4175 12.587284136202225 9.843778801044538 6.233273053999122 0 0 0
199 4 1.4175 7.1863223221313035 11.803251078900846 4.804599792079112 0 0 0
378 5 -0.945 12.246981654197745 9.659708516488598 1.8897617102287532 0 0 0
405 5 -0.945 9.062321366464403 8.14716824628709 1.5051235437326485 0 0 0
416 5 -0.945 11.14085002961416 8.973796265606348 5.535592726264335 0 0 0
430 5 -0.945 8.57814974963973 10.792368357351759 4.245302444953435 0 0 0
458 5 -0.945 6.756781583222638 9.844777192154934 1.2898221715020828 0 0 0
344 5 -0.945 12.258849798616247 11.609954624212204 5.840734294858903 0 0 0
178 4 1.4175 12.824297250955759 11.315987373743141 1.3295736607141757 0 0 1
240 5 -0.945 12.967227836812794 12.772278650524209 2.4093211630721107 0 0 0
278 5 -0.945 10.173305949753315 12.442455828570889 2.327063423893188 0 0 0
233 5 -0.945 6.949789730589116 11.284303179669415 6.541189011834562 0 0 0
174 4 1.4175 8.193152494171317 9.28199576575285 0.33168486239471384 0 0 0
242 5 -0.945 0.24818112051657826 7.451635233026939 2.909621318627702 0 0 0
138 2 1.89 19.65954883804202 8.838528937035369 3.6363640997141564 0 0 0
267 5 -0.945 19.829985672959946 9.571485619442264 5.112336322201368 0 0 0
55 1 0.945 15.183113834894952 7.49293453473979 4.258136547064416 0 0 0
110 2 1.89 18.72617355069267 6.64608294862635 2.8718253865090495 0 0 0
488 5 -0.945 17.974254333884094 7.167936619921742 1.4738205861650422 0 0 0
406 5 -0.945 18.156464043413234 7.683796506850273 4.14662777402224 -1 0 0
105 2 1.89 15.721151393627732 10.675009046870514 1.9126152437220094 0 0 0
124 2 1.89 17.805724907351667 7.736274823955434 5.79827244536223 0 0 0
141 2 1.89 14.423388802731024 13.316034389827598 3.1027885049019113 0 0 0
159 3 0.945 14.23847181202284 8.232478495240764 1.1592382410951205 0 0 0
238 5 -0.945 15.501645975644722 12.001121445813027 2.9093696953187513 0 0 0
287 5 -0.945 19.317279938036656 9.987346985568662 2.50136371630318 0 0 0
297 5 -0.945 14.426929772100744 10.738474601155474 0.8527551627271243 0 0 0
375 5 -0.945 15.67381515132318 9.18219718979527 2.6379528095959173 0 0 0
382 5 -0.945 17.082279862479176 10.83565566704918 1.0042047401034269 0 0 0
320 5 -0.945 13.93563698884143 8.823838861753737 5.6746668731797145 0 0 0
171 4 1.4175 18.864404677976232 10.529234421005235 0.8159743833480474 0 0 1
162 4 1.4175 13.563579198772695 12.824272738177683 6.24960001647711 0 0 0
417 5 -0.945 19.003649288266057 12.529083825152602 6.809292601241841 0 0 0
182 4 1.4175 19.926019375672336 13.717570636653456 5.802564318157184 -1 0 0
66 1 0.945 2.2756673700573837 16.515829984362014 4.570794981806771 0 0 0
90 1 0.945 3.864558676139859 18.25537195720519 2.4123481360367838 0 0 0
123 2 1.89 0.9557891796770709 15.486168568775769 1.1466818667350887 0 0 0
195 4 1.4175 0.3489998343485764 18.82745048253477 2.9986693028246374 0 0 0
248 5 -0.945 5.051819463953322 19.069933693132867 4.3765630255836765 0 0 0
360 5 -0.945 1.908439474251709 18.743876131003518 3.7832577147202264 0 0 0
372 5 -0.945 1.8295660103673737 14.41362515019077 0.21519132548607295 0 0 0
461 5 -0.945 5.596197092993911 16.222796453785282 2.390737802848228 0 0 0
496 5 -0.945 2.152592751720176 16.208975806958783 2.134153329004276 0 0 0
32 1 0.945 5.540921541272848 14.176757381969495 3.748811421298418 0 0 0
422 5 -0.945 0.6150030411586602 19.048791496457294 1.2640272098014753 1 0 0
244 5 -0.945 6.3784488029149635 15.708167607772047 5.557215426894459 0 0 0
384 5 -0.945 0.17015780746375198 16.704670939132594 0.19923785239217973 0 0 0
69 1 0.945 0.15820774318503802 19.29038675172311 5.736347178661326 0 0 0
227 5 -0.945 5.213447682973134 13.680807615892613 6.305199702968475 0 0 0
294 5 -0.945 6.655781960123153 13.77896538811478 1.4316585744220345 0 0 0
64 1 0.945 6.003745361012915 0.01885358724708297 6.359886942226687 0 0 0
494 5 -0.945 1.87442608127336 17.898400389313856 6.807432248204047 0 0 0
470 5 -0.945 1.0928138876599005 14.904596827673405 6.434912412984199 0 0 0
246 5 -0.945 13.31970615968862 19.560341459535692 5.093696908683596 0 -1 0
343 5 -0.945 7.802235420347326 13.392936172304617 4.785793819820801 0 0 0
161 3 0.945 8.262962841740729 19.168992562624698 0.25189145075584546 0 -1 0
187 4 1.4175 7.180356710329522 15.465838626843087 1.749205128766116 0 0 0
63 1 0.945 9.53080405106427 19.404948576961445 4.547148693226087 0 0 0
75 1 0.945 6.819802985881106 17.522331153121954 4.157982055582321 0 0 0
145 3 0.945 9.43797267915784 17.3309118072426 1.9682772287776273 0 0 0
168 4 1.4175 9.988789598562066 15.890788803426311 4.066360813787448 0 0 0
197 4 1.4175 7.871304415767215 14.776785287515091 5.855059564575848 0 0 0
236 5 -0.945 9.395501424583477 15.751242512562907 5.741283967433201 0 0 0
276 5 -0.945 8.451865039467801 15.771548824038161 2.9967006271606844 0 0 0
293 5 -0.945 11.18010393813602 14.96309122368631 1.1124208878029493 0 0 0
354 5 -0.945 10.726626134252138 17.368712366906603 3.4108633426975934 0 0 0
377 5 -0.945 8.170329562739747 18.787664438934637 2.63379000735336 0 0 0
426 5 -0.945 11.212609654442032 14.651367051214056 3.9587232533768555 0 0 0
56 1 0.945 12.359541765853965 17.240523022508377 1.4983611693381862 0 0 0
165 4 1.4175 11.400148875601618 13.74899989003887 2.3123936904736646 0 0 0
328 5 -0.945 10.277850978825255 18.424328244438083 0.5789748068527236 0 0 1
468 5 -0.945 8.175016043649062 16.138456471121078 0.386486207506223 0 0 1
37 1 0.945 9.89275958218492 13.053792269665815 19.855558314067938 0 0 0
265 5 -0.945 7.947381121797247 18.502000231845855 6.059965517308742 0 0 0
61 1 0.945 11.567734723545794 15.890041492681757 6.938311946149475 0 0 0
258 5 -0.945 17.620937361175866 19.671214880940365 0.9315773856466376 0 0 1
302 5 -0.945 14.33294917852085 13.437672447910344 4.748532636750459 0 0 0
427 5 -0.945 16.393090628934726 19.902173034317247 3.474683409965159 0 -1 0
420 5 -0.945 19.70533593566445 14.828596746174775 2.052728814528628 -1 0 0
282 5 -0.945 18.82586737072181 14.775753635653874 4.955330751777919 0 0 0
348 5 -0.945 19.714335491548137 17.18137485076558 3.5334307375469005 0 0 0
196 4 1.4175 18.760149934532013 15.638808614044851 3.4531640093361182 -1 0 0
29 1 0.945 15.494310035331399 18.351493814280555 5.19186002949948 0 0 0
133 2 1.89 15.631533273016569 16.273583753998405 2.235070860521299 0 0 0
213 5 -0.945 15.775775234955894 16.810312546917448 0.6369590539417163 0 0 0
266 5 -0.945 14.706802701717008 17.37104056262268 2.992933058565626 0 0 0
316 5 -0.945 17.11126391658115 16.063761215651787 2.8149415516446696 0 0 0
491 5 -0.945 14.859484736567069 14.713663342804947 2.3376974597639997 0 0 0
86 1 0.945 15.239265034988296 19.267862343938067 1.4685768067833507 0 0 1
407 5 -0.945 16.92478481890501 13.690076558521646 19.879020853177256 0 0 0
373 5 -0.945 1.1965640215841873 4.362503164204974 6.952053466401816 0 0 0
20 1 0.945 5.613039574058548 4.128173077517651 10.548888984522138 0 0 0
67 1 0.945 2.6735308037883745 5.728593290700479 8.601958406375704 0 0 0
193 4 1.4175 6.217425233895536 6.691819445641127 8.144701286041727 0 0 0
204 4 1.4175 4.0332000172768545 1.9474320997918781 8.71709737418709 0 0 0
263 5 -0.945 3.6611219846228824 3.695729598772545 8.89632311107102 0 0 0
322 5 -0.945 2.7619003071787396 0.8994702828576061 9.5435159522821 0 0 0
463 5 -0.945 5.758367996005173 1.776672217682427 9.501483820208 0 0 0
155 3 0.945 2.1165885306702736 0.4395014559014005 11.372023982126073 0 1 0
443 5 -0.945 4.0673505996737065 1.5163939732813694 7.038718984762161 0 1 0
349 5 -0.945 1.6882103539222026 1.6186100497736264 12.97347874889582 0 0 0
429 5 -0.945 5.134597028885386 4.7008980350611935 12.86239149005762 0 0 0
40 1 0.945 0.38433263022052505 2.0847435527824363 8.057210244411095 0 0 0
393 5 -0.945 0.36253894085593913 5.973245146078509 9.308459737189821 0 0 0
339 5 -0.945 6.777570247970014 6.0550563987508275 9.664586818387065 0 0 0
134 2 1.89 0.027378152556632784 1.2768145578566334 12.866531669465967 1 0 0
476 5 -0.945 10.184937710095653 6.551016069962732 7.661479035125534 0 0 0
472 5 -0.945 8.045133691674755 0.3679512872256897 10.229533660219376 0 0 0
119 2 1.89 7.4014837064774515 1.669061681334042 9.411301267859555 0 0 0
57 1 0.945 10.768983560170081 4.20005492340464 7.569736182876854 0 0 0
410 5 -0.945 8.042199496144983 3.092764366648948 10.177590058841066 0 0 0
85 1 0.945 12.06106045829889 6.332055252784908 9.86329301415208 0 0 0
130 2 1.89 9.323554004618634 3.8075920889720405 11.011578086032518 0 0 0
209 4 1.4175 10.314682009035197 1.4236930161641341 13.105823131111931 0 0 0
284 5 -0.945 10.302262876644708 4.6004015551372985 9.924011337402733 0 0 0
419 5 -0.945 10.19572375427793 2.5541224368121083 11.77571271033827 0 0 0
442 5 -0.945 9.04178442923139 4.8731427920353 12.304081662989706 0 0 0
288 5 -0.945 7.952790243473979 1.5653515233633128 7.77927662769956 0 1 0
163 4 1.4175 13.19327940618618 5.943142975362412 13.618609552930574 0 0 0
391 5 -0.945 13.25782177718008 5.508844173888361 11.816992873040984 0 0 0
106 2 1.89 13.092943225670368 1.357655111580965 8.809572087277113 0 0 0
333 5 -0.945 12.205031600358614 2.74495529059445 8.508659779713934 0 1 0
403 5 -0.945 12.47614976702679 0.3656232539355219 10.12782214587535 0 1 0
10 1 0.945 11.291011935564288 4.301024114998763 13.131191770784252 0 0 0
153 3 0.945 19.58610109178598 5.264619975662968 7.538913358626544 -1 0 0
341 5 -0.945 14.075151665073106 6.788979286601149 8.325656240156396 0 0 0
434 5 -0.945 14.728565260185697 1.7419785337849134 9.25660612540633 0 1 0
359 5 -0.945 18.18583074084608 3.646507755244329 7.858465707454059 0 0 0
441 5 -0.945 19.284050583511114 5.513080397639671 12.17868746206581 -1 0 0
82 1 0.945 16.461101337424825 1.825118198936917 7.5210271244381675 0 0 0
17 1 0.945 16.066669364112325 5.205348126309057 7.801353824723274 0 0 0
58 1 0.945 14.355077551374846 2.5041454300505492 11.474162002322323 0 0 0
59 1 0.945 18.03085391576626 4.021218817512245 10.380378567152828 0 0 0
399 5 -0.945 16.29692246742014 3.9025100186486843 12.11531534887933 0 0 0
154 3 0.945 18.890429485698856 6.434244646280832 10.522530405973544 0 0 0
217 5 -0.945 17.1364279215977 6.134972055676824 9.672416445336935 0 0 0
428 5 -0.945 14.119937894194086 0.48332783840863475 12.746973338760347 0 0 0
464 5 -0.945 19.259301276870897 2.628245766168238 12.33203010119245 0 0 0
418 5 -0.945 16.69968915914879 1.0842904162081537 12.737524660052816 0 1 0
206 4 1.4175 19.47097553065598 4.227149972246929 13.320794914917546 0 0 0
45 1 0.945 14.8656355043491 6.869816546762109 10.488670143791252 0 0 0
299 5 -0.945 19.962941504951043 0.07392895159131062 11.638392227481125 0 0 0
249 5 -0.945 4.446371545402469 7.327762794689626 8.204288761753078 0 0 0
102 2 1.89 5.010238048387079 8.895688213881433 7.737626383789781 0 0 0
272 5 -0.945 4.371938063879185 10.176724375236747 8.595573400634052 0 0 0
151 3 0.945 4.9277052271958075 11.959008821327563 7.460729686413767 0 0 0
212 5 -0.945 6.766659314039449 9.3147864207503 11.324267348694208 0 0 0
318 5 -0.945 0.7111844343253705 10.823286578592016 10.940221751122774 0 0 0
445 5 -0.945 2.9505017164845504 11.816719658074028 6.721132899304773 0 0 0
71 1 0.945 0.8167942872189559 12.981481478504579 11.994150267087806 1 0 0
486 5 -0.945 0.43237810188382514 10.447142057138876 7.778157034565738 0 0 0
65 1 0.945 2.376144624005771 11.490478530347978 9.041893602782071 0 0 0
329 5 -0.945 0.16592351965980817 8.86627139653768 13.171697988243345 0 0 0
446 5 -0.945 3.0770110152413346 13.652601539962184 11.703290805678042 0 0 0
201 4 1.4175 6.99291964814778 8.79075174983862 13.009554578637555 0 0 0
22 1 0.945 8.988077292054761 6.779034432662408 9.685435745292335 0 0 0
35 1 0.945 8.828022367086415 9.28487933198606 6.290824645026084 0 0 0
431 5 -0.945 6.663674926536594 8.503435527954236 7.822809358828611 0 0 0
143 2 1.89 7.741568579429751 10.414452706779876 10.593214591791696 0 0 0
334 5 -0.945 9.564707515666699 11.677509485670466 7.340729233475408 0 0 0
411 5 -0.945 8.05318255956266 11.500176681686387 11.934256228193593 0 0 0
465 5 -0.945 7.366895917425635 11.601834157108012 9.434297369028728 0 0 0
7 1 0.945 11.583902477223809 12.48512517742331 8.736604758359041 0 0 0
97 2 1.89 9.902951186804511 9.106700295605592 11.735883060038393 0 0 0
188 4 1.4175 7.889146420644242 12.275950762352256 7.792571151264168 0 0 0
221 5 -0.945 12.544997460018877 9.69366660562013 8.082291262845494 0 0 0
250 5 -0.945 12.586372109894024 12.538385146730448 12.777654587849325 0 0 0
392 5 -0.945 10.597100221223629 7.642840696746933 11.375613843993381 0 0 0
404 5 -0.945 13.447329086859964 11.16391319045673 10.145409955880792 0 0 0
467 5 -0.945 10.905397433618218 10.39981013271799 12.160727482561775 0 0 0
471 5 -0.945 9.130388183026618 9.490305017101537 10.259535683284527 0 0 0
255 5 -0.945 10.517996721527462 12.883680733541754 10.96508418417852 0 0 0
93 2 1.89 11.021761857847473 12.064475418634323 12.371006454042139 0 0 0
220 5 -0.945 8.891260298524383 8.83054955789738 13.03125072533335 0 0 0
253 5 -0.945 13.158851654468723 8.530531225812803 10.592516496113863 0 0 0
114 2 1.89 13.597751605576393 9.641017750740378 9.423712398299838 0 0 0
25 1 0.945 12.416885618477153 8.583152143788794 12.922800877300567 0 0 0
21 1 0.945 16.89030360891137 11.481275847977907 6.620471957574864 0 0 0
365 5 -0.945 17.163285992042496 9.213210165988661 6.347408587826509 0 0 0
180 4 1.4175 19.65582217649918 9.718316119761253 11.779675597636972 -1 0 0
395 5 -0.945 15.147689517923055 9.278527183621968 8.912722192638359 0 0 0
383 5 -0.945 19.00136912310754 8.457519419778222 10.551113176409277 -1 0 0
11 1 0.945 18.112917791368734 7.3824422109903995 13.406561956020017 0 0 0
42 1 0.945 0.10199377923388314 8.22001420314146 8.479633196938451 1 0 0
49 1 0.945 19.236870901639005 11.92780665013066 9.294887355015758 0 0 0
70 1 0.945 16.944162606221063 9.591182873533318 10.313350813532042 0 0 0
148 3 0.945 15.361554440361326 8.352370455948881 7.14914584435901 0 0 0
160 3 0.945 14.123613941834725 12.33416009560187 11.584980226576942 0 0 0
245 5 -0.945 14.35412228907915 9.92504948556288 13.285563290230046 0 0 0
314 5 -0.945 18.17114516272429 10.645371706326962 12.095638785301604 0 0 0
338 5 -0.945 16.1844265930696 8.218694470437624 12.104942948903481 0 0 0
347 5 -0.945 16.757708442286997 11.746332940937016 9.074363405771074 0 0 0
337 5 -0.945 18.306850416378712 13.206249736659945 11.296750679038801 0 0 0
198 4 1.4175 15.320230969308376 12.691838156093244 8.652478586251604 0 0 0
460 5 -0.945 14.560809035317595 11.782651053880624 7.301260841936267 0 0 0
135 2 1.89 17.611451276117496 12.226480243010217 12.562878431994218 0 0 0
128 2 1.89 15.347955536861118 8.595263498502486 13.438066429559168 0 0 0
350 5 -0.945 14.610166817440973 13.761181468676805 9.929268228639922 0 0 0
327 5 -0.945 16.003003512902293 12.382066330142928 12.469140896927216 0 0 0
305 5 -0.945 1.0241932037611172 13.45711909815191 9.55078421659693 0 0 0
46 1 0.945 3.0716300827223577 18.577208798589492 9.066274364254767 0 0 0
451 5 -0.945 5.1672675369432755 13.20021329211049 9.152028380322381 0 0 0
307 5 -0.945 5.7607787628862885 13.809128124714329 11.839151524831971 0 0 0
4 1 0.945 4.062574672640571 15.143773080442122 9.835350855143073 0 0 0
113 2 1.89 5.334926899876141 15.267829850687573 6.811531761169311 0 0 0
117 2 1.89 0.5870457696057453 15.076686648267467 9.698594079858154 0 0 0
120 2 1.89 6.0843922637785495 17.518939936542694 9.032000917046554 0 0 0
152 3 0.945 4.261230183057368 17.92375355156126 12.331629915673878 0 0 0
169 4 1.4175 2.062429251301664 16.185637688514365 7.20249767229747 0 0 0
252 5 -0.945 5.306916551252909 18.749798284391055 8.20486944326454 0 0 0
261 5 -0.945 1.8898280266957346 16.006057832095305 9.016896920097945 0 0 0
313 5 -0.945 5.908542054230104 16.07920310868414 8.178184915506721 0 0 0
357 5 -0.945 2.36168243860104 18.261237078493327 11.589195600322691 0 0 0
389 5 -0.945 4.1159503917463605 15.871749631959974 12.648874411480563 0 0 0
452 5 -0.945 3.774357333883455 15.97220442918389 6.572010866134813 0 0 0
478 5 -0.945 5.115091919866241 17.363627759475516 10.424406596398923 0 0 0
414 5 -0.945 0.3441111211403468 15.437737986106725 11.376973606478957 1 0 0
129 2 1.89 4.378375562023334 14.217880018194872 12.573308584196491 0 0 0
125 2 1.89 12.773299806286692 18.834086689869764 6.567399736130402 0 0 0
356 5 -0.945 13.042419942572247 0.18204363433776524 7.564594797944627 0 1 0
176 4 1.4175 6.560097047206737 13.080779805874245 10.204689627933394 0 0 0
497 5 -0.945 11.200248963009189 18.352934844815735 6.6488601214110155 0 0 0
300 5 -0.945 13.007962224904377 14.110143187936309 7.271617088070928 0 0 0
435 5 -0.945 7.664092808349845 17.841966827716732 9.413358868230032 0 0 0
74 1 0.945 9.15472983282832 17.121012689092044 7.624185147736712 0 0 0
111 2 1.89 11.593421397969928 19.205773176139903 10.994136132766021 0 0 0
137 2 1.89 9.818456408158905 14.362932847447146 10.521550699830081 0 0 0
275 5 -0.945 8.107665017694059 14.16610172661936 10.37412886501732 0 0 0
290 5 -0.945 10.32746355074741 14.995256307647187 9.09162517989367 0 0 0
330 5 -0.945 10.009171583535736 15.244852436830573 11.883691562615896 0 0 0
342 5 -0.945 10.178596796611401 18.81450475275803 10.08713682312209 0 0 0
346 5 -0.945 7.721980567277704 14.025010994646028 7.514493682345538 0 0 0
400 5 -0.945 12.528164551375266 17.862881752148542 10.934160020078595 0 0 0
132 2 1.89 8.55679516627392 18.784894352798016 10.509421893315496 0 0 0
280 5 -0.945 11.210360900200712 19.898819199736142 12.487154219395546 0 0 0
6 1 0.945 8.010962363069707 13.865622758585605 12.922067046671796 0 0 0
374 5 -0.945 8.44639606629486 18.348577442203485 12.135791980859711 0 0 0
31 1 0.945 11.352491824943456 16.835220607701515 12.969228654308598 0 0 0
296 5 -0.945 13.688196850492934 17.482832228623117 6.894004983660714 0 0 0
469 5 -0.945 18.88993084124681 0.25608909049518364 7.710364772867349 0 0 0
24 1 0.945 19.672501351570144 17.799701903489744 11.29410102025105 -1 -1 0
361 5 -0.945 18.20351642569981 17.943549196159996 6.458138194979154 0 -1 0
332 5 -0.945 16.29269869871471 19.445439233634072 7.899786993115549 0 -1 0
103 2 1.89 17.905910737079854 18.88474824139515 7.846413848410594 0 -1 0
54 1 0.945 14.362970310845927 18.75697616562525 9.17491593332901 0 0 0
127 2 1.89 15.594291040044691 19.810217425008233 12.483389309927876 0 -1 0
150 3 0.945 14.510961742447195 15.181978562940598 8.38965324930587 0 0 0
387 5 -0.945 15.840908237612485 19.016879289488816 11.029028935883252 0 0 0
388 5 -0.945 15.651648063318714 16.582159951646688 9.273819825517508 0 0 0
3 1 0.945 17.772770789240088 15.652911823483736 6.873327324031169 0 0 0
81 1 0.945 16.98102186687609 14.56032482816237 9.96650825994279 0 0 0
190 4 1.4175 16.61977945498416 17.51416963607415 10.336559280414921 0 0 0
228 5 -0.945 17.989670201095176 18.065835694127152 9.290572458522238 0 0 0
268 5 -0.945 16.090381961425237 14.052950828710381 7.728057560779755 0 0 0
291 5 -0.945 16.888726823900658 16.576441103791943 11.887472776995594 0 0 0
304 5 -0.945 19.10623119175548 15.296484614097974 8.995952311606306 0 0 0
336 5 -0.945 14.533968866388513 16.335311766828955 13.331261867321539 0 0 0
87 1 0.945 18.572488932313068 15.126407495319706 13.054902438650963 -1 0 0
5 1 0.945 5.675037797841781 2.671240511772156 0.05220597177254864 0 0 1
80 1 0.945 2.8185940043663766 3.2223868813977337 14.48568227396475 0 0 0
116 2 1.89 5.8855604619360475 5.603388559211397 14.020069535307531 0 0 0
256 5 -0.945 4.719009098948951 5.959093266909251 15.218426735564265 0 0 0
279 5 -0.945 0.6537634675870534 4.2332315278986075 14.631136938894336 0 0 0
351 5 -0.945 5.557010646572786 4.808143665552726 17.408770142394342 0 0 0
479 5 -0.945 3.0056748840297076 1.200458324868273 15.995522107767702 0 0 0
483 5 -0.945 2.7865477856191885 5.9034656177754785 17.238340004228263 0 0 0
92 2 1.89 4.4458393717879385 6.011201689963802 16.887090859515904 0 0 0
306 5 -0.945 5.170584558196561 4.925845275427557 0.12616836937237852 0 0 1
413 5 -0.945 0.18647080588414391 5.934202576113998 18.392196171952403 0 0 0
77 1 0.945 19.557327476501122 0.37843708472259097 16.82864979047178 -1 0 0
308 5 -0.945 11.474533933326061 2.0712867699216058 14.296714674251936 0 0 0
264 5 -0.945 6.953449713233133 4.736129084122492 15.09365724807501 0 0 0
136 2 1.89 7.139904454192788 4.493434856887501 16.740797549731113 0 0 0
484 5 -0.945 11.6422443908945 6.490767064440571 14.253465035503108 0 0 0
185 4 1.4175 11.045626913342739 3.201104633545135 0.14989766664099252 0 0 0
234 5 -0.945 7.83226921752655 3.603035149844713 19.90171875186836 0 0 0
8 1 0.945 9.025940009855292 6.629533331718119 14.042283457007374 0 0 0
15 1 0.945 11.525108367814015 2.2904946964451947 16.674147318876233 0 0 0
131 2 1.89 8.378233839720775 2.522543077736405 18.82133454993426 0 0 0
224 5 -0.945 12.740285658697903 2.5072868848968937 19.972678736463727 0 0 0
225 5 -0.945 8.808122869231207 0.6781918636367192 13.682911276040935 0 0 0
243 5 -0.945 12.494550955133413 5.82582646176908 17.289428455045414 0 0 0
270 5 -0.945 10.082051201468387 2.4611983858868824 18.67632427517627 0 0 0
281 5 -0.945 7.737567278218018 3.0314669169978 17.343648567613297 0 0 0
324 5 -0.945 11.263417970536931 4.991719130786564 19.77492930445816 0 0 0
477 5 -0.945 13.911308498532874 2.734847155041072 16.798080436637704 0 0 0
495 5 -0.945 8.10346906189784 5.9200261067401945 17.135732391261516 0 0 0
292 5 -0.945 12.201443907079225 0.12308354765484794 16.230160515671738 0 0 0
345 5 -0.945 7.716753045688225 1.1181474195690468 19.434216157110853 0 1 0
149 3 0.945 12.766402831067284 0.28375406522109775 14.216410316712748 0 0 0
60 1 0.945 14.147987127065095 0.5433509770834489 18.11603612494727 0 0 0
194 4 1.4175 11.835950540222557 6.316976578104227 18.815750617121545 0 0 0
1 1 0.945 17.82353150962856 1.7506687803678973 19.776682822527324 0 0 0
363 5 -0.945 13.592027659724076 4.411886038480718 14.381000827320296 0 0 0
175 4 1.4175 17.054452548512934 2.794389752539687 13.433305186110825 0 0 0
421 5 -0.945 19.434666181633954 0.9675219360962531 14.42221495912406 0 0 0
139 2 1.89 14.272817994664484 3.2849329491360124 19.989153988870267 0 0 -1
499 5 -0.945 14.493019385543409 4.545735084720004 18.86921305150663 0 0 -1
326 5 -0.945 18.07935373382794 3.992570941456363 14.405735317681058 0 0 0
177 4 1.4175 19.197878973301044 4.69503413051285 15.693266436068358 -1 0 0
289 5 -0.945 18.44534263469342 4.146230665638186 17.23854300916736 -1 0 0
38 1 0.945 16.32291544262578 2.9386341469243775 17.597345726145914 0 0 0
99 2 1.89 14.557812669816546 3.6398312337276906 15.517310873877864 0 0 0
164 4 1.4175 18.582924465188075 5.157374740013945 18.721155307126562 0 0 0
172 4 1.4175 14.321009998965806 5.700741816631917 17.527972121624614 0 0 0
229 5 -0.945 17.435249086659066 6.4955404172649205 18.72222881261686 0 0 0
259 5 -0.945 17.459831647904558 0.9283213740197144 17.433000005061107 0 0 0
371 5 -0.945 15.372501813434093 2.064902796892323 19.665742038316257 0 0 0
394 5 -0.945 15.788025608864162 2.638412010803607 14.86386891742432 0 0 0
474 5 -0.945 15.348700452878303 4.950768613052022 16.296386462619417 0 0 0
398 5 -0.945 19.010851529253554 6.434206514161385 15.428713769051353 0 0 0
48 1 0.945 17.126680314471706 0.401993762643542 15.163503418951459 0 0 0
109 2 1.89 1.681194369299042 6.631434540520634 18.245287455579415 0 0 0
273 5 -0.945 6.606421754321783 7.011759345541785 13.493452845137476 0 0 0
9 1 0.945 3.507764778967529 9.042414109873 18.84776674616205 0 0 -1
181 4 1.4175 3.758317621019929 12.111574638336933 17.851468983983086 0 0 -1
271 5 -0.945 2.3725934890960767 11.14601184354786 18.640715917576635 0 0 -1
23 1 0.945 0.40516486515856553 8.435382178459497 15.441136727420659 0 0 0
76 1 0.945 5.8560101811562 12.016960401850453 14.902670405472284 0 0 0
262 5 -0.945 1.420635539053517 8.250537038152531 17.635154665049363 0 0 0
286 5 -0.945 4.729073217747395 11.038542732943881 16.838449319625937 0 0 0
380 5 -0.945 2.53390186560132 6.722381193773149 19.648891287846457 0 0 0
433 5 -0.945 4.590888821876366 12.728710864192514 19.38863433778843 0 0 0
440 5 -0.945 4.81240542982436 7.574865014497418 17.440902006722396 0 0 0
457 5 -0.945 0.3653051970343778 11.917603579968425 16.149769582203987 0 0 0
89 1 0.945 6.427545752749468 9.207971945585173 16.77137435344309 0 0 0